 BEGIN_INFO
   Fermi Energy:     0.086887
 END_INFO
 BEGIN_BLOCK_BANDGRID_3D
 band_energies
 BEGIN_BANDGRID_3D_BANDS
 1
  10  10  10
      0.00000000      0.00000000      0.00000000
      0.52917721      0.00000000      0.00000000
      0.00000000      0.52917721      0.00000000
      0.00000000      0.00000000      0.52917721
 BAND:    1
  5.527541E+00  5.527541E+00  5.527541E+00  5.527541E+00  5.527541E+00  5.527541E+00
  5.527541E+00  5.527541E+00  5.527541E+00  5.527541E+00  4.435681E+00  4.435681E+00
  4.435681E+00  4.435681E+00  4.435681E+00  4.435681E+00  4.435681E+00  4.435681E+00
  4.435681E+00  4.435681E+00  3.616786E+00  3.616786E+00  3.616786E+00  3.616786E+00
  3.616786E+00  3.616786E+00  3.616786E+00  3.616786E+00  3.616786E+00  3.616786E+00
  3.070856E+00  3.070856E+00  3.070856E+00  3.070856E+00  3.070856E+00  3.070856E+00
  3.070856E+00  3.070856E+00  3.070856E+00  3.070856E+00  2.797891E+00  2.797891E+00
  2.797891E+00  2.797891E+00  2.797891E+00  2.797891E+00  2.797891E+00  2.797891E+00
  2.797891E+00  2.797891E+00  2.797891E+00  2.797891E+00  2.797891E+00  2.797891E+00
  2.797891E+00  2.797891E+00  2.797891E+00  2.797891E+00  2.797891E+00  2.797891E+00
  3.070856E+00  3.070856E+00  3.070856E+00  3.070856E+00  3.070856E+00  3.070856E+00
  3.070856E+00  3.070856E+00  3.070856E+00  3.070856E+00  3.616786E+00  3.616786E+00
  3.616786E+00  3.616786E+00  3.616786E+00  3.616786E+00  3.616786E+00  3.616786E+00
  3.616786E+00  3.616786E+00  4.435681E+00  4.435681E+00  4.435681E+00  4.435681E+00
  4.435681E+00  4.435681E+00  4.435681E+00  4.435681E+00  4.435681E+00  4.435681E+00
  5.527541E+00  5.527541E+00  5.527541E+00  5.527541E+00  5.527541E+00  5.527541E+00
  5.527541E+00  5.527541E+00  5.527541E+00  5.527541E+00  4.435681E+00  4.435681E+00
  4.435681E+00  4.435681E+00  4.435681E+00  4.435681E+00  4.435681E+00  4.435681E+00
  4.435681E+00  4.435681E+00  3.343821E+00  3.343821E+00  3.343821E+00  3.343821E+00
  3.343821E+00  3.343821E+00  3.343821E+00  3.343821E+00  3.343821E+00  3.343821E+00
  2.524926E+00  2.524926E+00  2.524926E+00  2.524926E+00  2.524926E+00  2.524926E+00
  2.524926E+00  2.524926E+00  2.524926E+00  2.524926E+00  1.978996E+00  1.978996E+00
  1.978996E+00  1.978996E+00  1.978996E+00  1.978996E+00  1.978996E+00  1.978996E+00
  1.978996E+00  1.978996E+00  1.706031E+00  1.706031E+00  1.706031E+00  1.706031E+00
  1.706031E+00  1.706031E+00  1.706031E+00  1.706031E+00  1.706031E+00  1.706031E+00
  1.706031E+00  1.706031E+00  1.706031E+00  1.706031E+00  1.706031E+00  1.706031E+00
  1.706031E+00  1.706031E+00  1.706031E+00  1.706031E+00  1.978996E+00  1.978996E+00
  1.978996E+00  1.978996E+00  1.978996E+00  1.978996E+00  1.978996E+00  1.978996E+00
  1.978996E+00  1.978996E+00  2.524926E+00  2.524926E+00  2.524926E+00  2.524926E+00
  2.524926E+00  2.524926E+00  2.524926E+00  2.524926E+00  2.524926E+00  2.524926E+00
  3.343821E+00  3.343821E+00  3.343821E+00  3.343821E+00  3.343821E+00  3.343821E+00
  3.343821E+00  3.343821E+00  3.343821E+00  3.343821E+00  4.435681E+00  4.435681E+00
  4.435681E+00  4.435681E+00  4.435681E+00  4.435681E+00  4.435681E+00  4.435681E+00
  4.435681E+00  4.435681E+00  3.616786E+00  3.616786E+00  3.616786E+00  3.616786E+00
  3.616786E+00  3.616786E+00  3.616786E+00  3.616786E+00  3.616786E+00  3.616786E+00
  2.524926E+00  2.524926E+00  2.524926E+00  2.524926E+00  2.524926E+00  2.524926E+00
  2.524926E+00  2.524926E+00  2.524926E+00  2.524926E+00  1.706031E+00  1.706031E+00
  1.706031E+00  1.706031E+00  1.706031E+00  1.706031E+00  1.706031E+00  1.706031E+00
  1.706031E+00  1.706031E+00  1.160101E+00  1.160101E+00  1.160101E+00  1.160101E+00
  1.160101E+00  1.160101E+00  1.160101E+00  1.160101E+00  1.160101E+00  1.160101E+00
  8.871363E-01  8.871363E-01  8.871363E-01  8.871363E-01  8.871363E-01  8.871363E-01
  8.871363E-01  8.871363E-01  8.871363E-01  8.871363E-01  8.871363E-01  8.871363E-01
  8.871363E-01  8.871363E-01  8.871363E-01  8.871363E-01  8.871363E-01  8.871363E-01
  8.871363E-01  8.871363E-01  1.160101E+00  1.160101E+00  1.160101E+00  1.160101E+00
  1.160101E+00  1.160101E+00  1.160101E+00  1.160101E+00  1.160101E+00  1.160101E+00
  1.706031E+00  1.706031E+00  1.706031E+00  1.706031E+00  1.706031E+00  1.706031E+00
  1.706031E+00  1.706031E+00  1.706031E+00  1.706031E+00  2.524926E+00  2.524926E+00
  2.524926E+00  2.524926E+00  2.524926E+00  2.524926E+00  2.524926E+00  2.524926E+00
  2.524926E+00  2.524926E+00  3.616786E+00  3.616786E+00  3.616786E+00  3.616786E+00
  3.616786E+00  3.616786E+00  3.616786E+00  3.616786E+00  3.616786E+00  3.616786E+00
  3.070856E+00  3.070856E+00  3.070856E+00  3.070856E+00  3.070856E+00  3.070856E+00
  3.070856E+00  3.070856E+00  3.070856E+00  3.070856E+00  1.978996E+00  1.978996E+00
  1.978996E+00  1.978996E+00  1.978996E+00  1.978996E+00  1.978996E+00  1.978996E+00
  1.978996E+00  1.978996E+00  1.160101E+00  1.160101E+00  1.160101E+00  1.160101E+00
  1.160101E+00  1.160101E+00  1.160101E+00  1.160101E+00  1.160101E+00  1.160101E+00
  6.141713E-01  6.141713E-01  6.141713E-01  6.141713E-01  6.141713E-01  6.141713E-01
  6.141713E-01  6.141713E-01  6.141713E-01  6.141713E-01  3.412063E-01  3.412063E-01
  3.412063E-01  3.412063E-01  3.412063E-01  3.412063E-01  3.412063E-01  3.412063E-01
  3.412063E-01  3.412063E-01  3.412063E-01  3.412063E-01  3.412063E-01  3.412063E-01
  3.412063E-01  3.412063E-01  3.412063E-01  3.412063E-01  3.412063E-01  3.412063E-01
  6.141713E-01  6.141713E-01  6.141713E-01  6.141713E-01  6.141713E-01  6.141713E-01
  6.141713E-01  6.141713E-01  6.141713E-01  6.141713E-01  1.160101E+00  1.160101E+00
  1.160101E+00  1.160101E+00  1.160101E+00  1.160101E+00  1.160101E+00  1.160101E+00
  1.160101E+00  1.160101E+00  1.978996E+00  1.978996E+00  1.978996E+00  1.978996E+00
  1.978996E+00  1.978996E+00  1.978996E+00  1.978996E+00  1.978996E+00  1.978996E+00
  3.070856E+00  3.070856E+00  3.070856E+00  3.070856E+00  3.070856E+00  3.070856E+00
  3.070856E+00  3.070856E+00  3.070856E+00  3.070856E+00  2.797891E+00  2.797891E+00
  2.797891E+00  2.797891E+00  2.797891E+00  2.797891E+00  2.797891E+00  2.797891E+00
  2.797891E+00  2.797891E+00  1.706031E+00  1.706031E+00  1.706031E+00  1.706031E+00
  1.706031E+00  1.706031E+00  1.706031E+00  1.706031E+00  1.706031E+00  1.706031E+00
  8.871363E-01  8.871363E-01  8.871363E-01  8.871363E-01  8.871363E-01  8.871363E-01
  8.871363E-01  8.871363E-01  8.871363E-01  8.871363E-01  3.412063E-01  3.412063E-01
  3.412063E-01  3.412063E-01  3.412063E-01  3.412063E-01  3.412063E-01  3.412063E-01
  3.412063E-01  3.412063E-01  6.824125E-02  6.824125E-02  6.824125E-02  6.824125E-02
  6.824125E-02  6.824125E-02  6.824125E-02  6.824125E-02  6.824125E-02  6.824125E-02
  6.824125E-02  6.824125E-02  6.824125E-02  6.824125E-02  6.824125E-02  6.824125E-02
  6.824125E-02  6.824125E-02  6.824125E-02  6.824125E-02  3.412063E-01  3.412063E-01
  3.412063E-01  3.412063E-01  3.412063E-01  3.412063E-01  3.412063E-01  3.412063E-01
  3.412063E-01  3.412063E-01  8.871363E-01  8.871363E-01  8.871363E-01  8.871363E-01
  8.871363E-01  8.871363E-01  8.871363E-01  8.871363E-01  8.871363E-01  8.871363E-01
  1.706031E+00  1.706031E+00  1.706031E+00  1.706031E+00  1.706031E+00  1.706031E+00
  1.706031E+00  1.706031E+00  1.706031E+00  1.706031E+00  2.797891E+00  2.797891E+00
  2.797891E+00  2.797891E+00  2.797891E+00  2.797891E+00  2.797891E+00  2.797891E+00
  2.797891E+00  2.797891E+00  2.797891E+00  2.797891E+00  2.797891E+00  2.797891E+00
  2.797891E+00  2.797891E+00  2.797891E+00  2.797891E+00  2.797891E+00  2.797891E+00
  1.706031E+00  1.706031E+00  1.706031E+00  1.706031E+00  1.706031E+00  1.706031E+00
  1.706031E+00  1.706031E+00  1.706031E+00  1.706031E+00  8.871363E-01  8.871363E-01
  8.871363E-01  8.871363E-01  8.871363E-01  8.871363E-01  8.871363E-01  8.871363E-01
  8.871363E-01  8.871363E-01  3.412063E-01  3.412063E-01  3.412063E-01  3.412063E-01
  3.412063E-01  3.412063E-01  3.412063E-01  3.412063E-01  3.412063E-01  3.412063E-01
  6.824125E-02  6.824125E-02  6.824125E-02  6.824125E-02  6.824125E-02  6.824125E-02
  6.824125E-02  6.824125E-02  6.824125E-02  6.824125E-02  6.824125E-02  6.824125E-02
  6.824125E-02  6.824125E-02  6.824125E-02  6.824125E-02  6.824125E-02  6.824125E-02
  6.824125E-02  6.824125E-02  3.412063E-01  3.412063E-01  3.412063E-01  3.412063E-01
  3.412063E-01  3.412063E-01  3.412063E-01  3.412063E-01  3.412063E-01  3.412063E-01
  8.871363E-01  8.871363E-01  8.871363E-01  8.871363E-01  8.871363E-01  8.871363E-01
  8.871363E-01  8.871363E-01  8.871363E-01  8.871363E-01  1.706031E+00  1.706031E+00
  1.706031E+00  1.706031E+00  1.706031E+00  1.706031E+00  1.706031E+00  1.706031E+00
  1.706031E+00  1.706031E+00  2.797891E+00  2.797891E+00  2.797891E+00  2.797891E+00
  2.797891E+00  2.797891E+00  2.797891E+00  2.797891E+00  2.797891E+00  2.797891E+00
  3.070856E+00  3.070856E+00  3.070856E+00  3.070856E+00  3.070856E+00  3.070856E+00
  3.070856E+00  3.070856E+00  3.070856E+00  3.070856E+00  1.978996E+00  1.978996E+00
  1.978996E+00  1.978996E+00  1.978996E+00  1.978996E+00  1.978996E+00  1.978996E+00
  1.978996E+00  1.978996E+00  1.160101E+00  1.160101E+00  1.160101E+00  1.160101E+00
  1.160101E+00  1.160101E+00  1.160101E+00  1.160101E+00  1.160101E+00  1.160101E+00
  6.141713E-01  6.141713E-01  6.141713E-01  6.141713E-01  6.141713E-01  6.141713E-01
  6.141713E-01  6.141713E-01  6.141713E-01  6.141713E-01  3.412063E-01  3.412063E-01
  3.412063E-01  3.412063E-01  3.412063E-01  3.412063E-01  3.412063E-01  3.412063E-01
  3.412063E-01  3.412063E-01  3.412063E-01  3.412063E-01  3.412063E-01  3.412063E-01
  3.412063E-01  3.412063E-01  3.412063E-01  3.412063E-01  3.412063E-01  3.412063E-01
  6.141713E-01  6.141713E-01  6.141713E-01  6.141713E-01  6.141713E-01  6.141713E-01
  6.141713E-01  6.141713E-01  6.141713E-01  6.141713E-01  1.160101E+00  1.160101E+00
  1.160101E+00  1.160101E+00  1.160101E+00  1.160101E+00  1.160101E+00  1.160101E+00
  1.160101E+00  1.160101E+00  1.978996E+00  1.978996E+00  1.978996E+00  1.978996E+00
  1.978996E+00  1.978996E+00  1.978996E+00  1.978996E+00  1.978996E+00  1.978996E+00
  3.070856E+00  3.070856E+00  3.070856E+00  3.070856E+00  3.070856E+00  3.070856E+00
  3.070856E+00  3.070856E+00  3.070856E+00  3.070856E+00  3.616786E+00  3.616786E+00
  3.616786E+00  3.616786E+00  3.616786E+00  3.616786E+00  3.616786E+00  3.616786E+00
  3.616786E+00  3.616786E+00  2.524926E+00  2.524926E+00  2.524926E+00  2.524926E+00
  2.524926E+00  2.524926E+00  2.524926E+00  2.524926E+00  2.524926E+00  2.524926E+00
  1.706031E+00  1.706031E+00  1.706031E+00  1.706031E+00  1.706031E+00  1.706031E+00
  1.706031E+00  1.706031E+00  1.706031E+00  1.706031E+00  1.160101E+00  1.160101E+00
  1.160101E+00  1.160101E+00  1.160101E+00  1.160101E+00  1.160101E+00  1.160101E+00
  1.160101E+00  1.160101E+00  8.871363E-01  8.871363E-01  8.871363E-01  8.871363E-01
  8.871363E-01  8.871363E-01  8.871363E-01  8.871363E-01  8.871363E-01  8.871363E-01
  8.871363E-01  8.871363E-01  8.871363E-01  8.871363E-01  8.871363E-01  8.871363E-01
  8.871363E-01  8.871363E-01  8.871363E-01  8.871363E-01  1.160101E+00  1.160101E+00
  1.160101E+00  1.160101E+00  1.160101E+00  1.160101E+00  1.160101E+00  1.160101E+00
  1.160101E+00  1.160101E+00  1.706031E+00  1.706031E+00  1.706031E+00  1.706031E+00
  1.706031E+00  1.706031E+00  1.706031E+00  1.706031E+00  1.706031E+00  1.706031E+00
  2.524926E+00  2.524926E+00  2.524926E+00  2.524926E+00  2.524926E+00  2.524926E+00
  2.524926E+00  2.524926E+00  2.524926E+00  2.524926E+00  3.616786E+00  3.616786E+00
  3.616786E+00  3.616786E+00  3.616786E+00  3.616786E+00  3.616786E+00  3.616786E+00
  3.616786E+00  3.616786E+00  4.435681E+00  4.435681E+00  4.435681E+00  4.435681E+00
  4.435681E+00  4.435681E+00  4.435681E+00  4.435681E+00  4.435681E+00  4.435681E+00
  3.343821E+00  3.343821E+00  3.343821E+00  3.343821E+00  3.343821E+00  3.343821E+00
  3.343821E+00  3.343821E+00  3.343821E+00  3.343821E+00  2.524926E+00  2.524926E+00
  2.524926E+00  2.524926E+00  2.524926E+00  2.524926E+00  2.524926E+00  2.524926E+00
  2.524926E+00  2.524926E+00  1.978996E+00  1.978996E+00  1.978996E+00  1.978996E+00
  1.978996E+00  1.978996E+00  1.978996E+00  1.978996E+00  1.978996E+00  1.978996E+00
  1.706031E+00  1.706031E+00  1.706031E+00  1.706031E+00  1.706031E+00  1.706031E+00
  1.706031E+00  1.706031E+00  1.706031E+00  1.706031E+00  1.706031E+00  1.706031E+00
  1.706031E+00  1.706031E+00  1.706031E+00  1.706031E+00  1.706031E+00  1.706031E+00
  1.706031E+00  1.706031E+00  1.978996E+00  1.978996E+00  1.978996E+00  1.978996E+00
  1.978996E+00  1.978996E+00  1.978996E+00  1.978996E+00  1.978996E+00  1.978996E+00
  2.524926E+00  2.524926E+00  2.524926E+00  2.524926E+00  2.524926E+00  2.524926E+00
  2.524926E+00  2.524926E+00  2.524926E+00  2.524926E+00  3.343821E+00  3.343821E+00
  3.343821E+00  3.343821E+00  3.343821E+00  3.343821E+00  3.343821E+00  3.343821E+00
  3.343821E+00  3.343821E+00  4.435681E+00  4.435681E+00  4.435681E+00  4.435681E+00
  4.435681E+00  4.435681E+00  4.435681E+00  4.435681E+00  4.435681E+00  4.435681E+00
  5.527541E+00  5.527541E+00  5.527541E+00  5.527541E+00  5.527541E+00  5.527541E+00
  5.527541E+00  5.527541E+00  5.527541E+00  5.527541E+00  4.435681E+00  4.435681E+00
  4.435681E+00  4.435681E+00  4.435681E+00  4.435681E+00  4.435681E+00  4.435681E+00
  4.435681E+00  4.435681E+00  3.616786E+00  3.616786E+00  3.616786E+00  3.616786E+00
  3.616786E+00  3.616786E+00  3.616786E+00  3.616786E+00  3.616786E+00  3.616786E+00
  3.070856E+00  3.070856E+00  3.070856E+00  3.070856E+00  3.070856E+00  3.070856E+00
  3.070856E+00  3.070856E+00  3.070856E+00  3.070856E+00  2.797891E+00  2.797891E+00
  2.797891E+00  2.797891E+00  2.797891E+00  2.797891E+00  2.797891E+00  2.797891E+00
  2.797891E+00  2.797891E+00  2.797891E+00  2.797891E+00  2.797891E+00  2.797891E+00
  2.797891E+00  2.797891E+00  2.797891E+00  2.797891E+00  2.797891E+00  2.797891E+00
  3.070856E+00  3.070856E+00  3.070856E+00  3.070856E+00  3.070856E+00  3.070856E+00
  3.070856E+00  3.070856E+00  3.070856E+00  3.070856E+00  3.616786E+00  3.616786E+00
  3.616786E+00  3.616786E+00  3.616786E+00  3.616786E+00  3.616786E+00  3.616786E+00
  3.616786E+00  3.616786E+00  4.435681E+00  4.435681E+00  4.435681E+00  4.435681E+00
  4.435681E+00  4.435681E+00  4.435681E+00  4.435681E+00  4.435681E+00  4.435681E+00
  5.527541E+00  5.527541E+00  5.527541E+00  5.527541E+00  5.527541E+00  5.527541E+00
  5.527541E+00  5.527541E+00  5.527541E+00  5.527541E+00
 END_BANDGRID_3D
 END_BLOCK_BANDGRID_3D
